
 Primary working directories    : /tmp
 Secondary working directories  : /tmp
 Wavefunction directory         : /users/tnorthey/wfu/
 Main file repository           : /tmp/

 SHA1      : c1fa73a58b863d85f8aab6c87b7659dc5dec4ab7
 NAME      : 2015.1.19
 ARCHNAME  : linux/x86_64
 FC        : /usr/bin/gfortran
 BLASLIB   : -L/gpfs/runtime/opt/intel/2017.0/mkl/lib/intel64 -lmkl_gf_ilp64 -lmkl_gnu_thread -lmkl_core
 id        : brownengin

 Nodes                       nprocs
 node1317.oscar.ccv.brown.edu    1

 Using customized tuning parameters: mindgm=1; mindgv=20; mindgc=4; mindgr=1; noblas=0; minvec=7
 default implementation of scratch files=df  

                                                                                 !!! chd
 
 basis=6-311G**
 geomtyp=xyz
 
 geometry={
         14
 C 0.7709801662527342 -1.2583699303856912 -0.19398227982395724
 C 1.440928091983844 0.1346026518976958 0.1592908132855851
 C 0.7082399468435082 1.27571014859246 0.19591375359813695
 C -0.6953404685303531 1.2401438740505448 -0.16048264597043335
 C -1.4266060890460421 0.07650543250361386 -0.19533461612598224
 C -0.7952002539371801 -1.262347756916468 0.1537428726156896
 H 1.1691563032357268 -2.090631612442759 0.46687565636463585
 H 0.827775810190588 -1.5674064878821987 -1.1248542659672318
 H 2.5182554182681507 0.04997356403033847 0.4276019330621239
 H 1.2931425284242775 2.2692499130271826 0.4166951853252504
 H -1.192832220932882 2.166163904386229 -0.3360227995697933
 H -2.495107372302574 0.10438095972493619 -0.4176226563268696
 H -1.264802357133196 -2.085913056786707 -0.2369592803710009
 H -0.8913395342021215 -1.3015867513245465 1.290900437725209
           }
 
 
 hf
 optg,savexyz='chd_opt.xyz'                                                      !default optimization
 freq
 
 put, molden, chd_opt_freq.mld

 Variables initialized (889), CPU time= 0.00 sec
 Commands  initialized (702), CPU time= 0.01 sec, 572 directives.
 Default parameters read. Elapsed time= 0.02 sec

 Checking input...
 Passed
1


                                         ***  PROGRAM SYSTEM MOLPRO  ***
                                       Copyright, TTI GmbH Stuttgart, 2015
                                    Version 2015.1 linked Dec 11 2017 15:18:43


 **********************************************************************************************************************************
 LABEL *                                                                                 
  64 bit serial version                                                                  DATE: 18-Apr-23          TIME: 12:10:23  
 **********************************************************************************************************************************

 SHA1:             c1fa73a58b863d85f8aab6c87b7659dc5dec4ab7
 **********************************************************************************************************************************

 Variable memory set to    8000000 words,  buffer space   230000 words

 SETTING BASIS          =    6-311G**
 SETTING GEOMTYP        =    XYZ


 Recomputing integrals since basis changed


 Using spherical harmonics

 Library entry C      S 6-311G               selected for orbital group  1
 Library entry C      P 6-311G               selected for orbital group  1
 Library entry C      D 6-311G*              selected for orbital group  1
 Library entry H      S 6-311G               selected for orbital group  2
 Library entry H      P 6-311G**             selected for orbital group  2


 PROGRAM * SEWARD (Integral evaluation for generally contracted gaussian basis sets)     Author: Roland Lindh, 1990

 Geometry written to block  1 of record 700


 Point group  C1  



 ATOMIC COORDINATES

 NR  ATOM    CHARGE       X              Y              Z

   1  C       6.00    1.456941362   -2.377974532   -0.366573382
   2  C       6.00    2.722959459    0.254362148    0.301016011
   3  C       6.00    1.338379530    2.410742795    0.370223338
   4  C       6.00   -1.314003049    2.343532277   -0.303268249
   5  C       6.00   -2.695894796    0.144574314   -0.369128927
   6  C       6.00   -1.502710694   -2.385491535    0.290531923
   7  H       1.00    2.209385210   -3.950721175    0.882267125
   8  H       1.00    1.564269574   -2.961968988   -2.125666493
   9  H       1.00    4.758813052    0.094436349    0.808050544
  10  H       1.00    2.443685219    4.288260844    0.787439778
  11  H       1.00   -2.254126210    4.093456520   -0.634991063
  12  H       1.00   -4.715069585    0.197251426   -0.789192444
  13  H       1.00   -2.390130057   -3.941804397   -0.447788143
  14  H       1.00   -1.684387604   -2.459642487    2.439448281

 Bond lengths in Bohr (Angstrom)

 1-2  2.996276659  1-6  3.031729569  1-7  2.144599347  1-8  1.856603739  2-3  2.563557827
     ( 1.585561325)     ( 1.604322197)     ( 1.134873101)     ( 0.982472388)     ( 1.356576381)

  2- 9  2.104129305   3- 4  2.737378585   3-10  2.218297601   4- 5  2.597956611   4-11  2.013977766
       ( 1.113457277)       ( 1.448558365)       ( 1.173872537)       ( 1.374779433)       ( 1.065751137)

  5- 6  2.874034436   5-12  2.063079025   6-13  1.937714987   6-14  2.157856895
       ( 1.520873527)       ( 1.091734405)       ( 1.025394612)       ( 1.141888693)

 Bond angles

  1- 2- 3  121.11794581   1- 2- 9  113.31189460   1- 6- 5  110.69292832   1- 6-13  111.49936072

  1- 6-14  107.34480932   2- 1- 6  111.49202204   2- 1- 7  111.48668108   2- 1- 8  117.58226222

  2- 3- 4  119.73805668   2- 3-10  116.60954486   3- 2- 9  125.45079390   3- 4- 5  122.84839918

  3- 4-11  118.13143503   4- 3-10  123.35682386   4- 5- 6  121.22963021   4- 5-12  120.27462023

  5- 4-11  118.87962425   5- 6-13  115.43318330   5- 6-14  102.93645690   6- 1- 7  102.38514951

  6- 1- 8  105.13022569   6- 5-12  118.39424436   7- 1- 8  107.50424507  13- 6-14  108.25760269

 NUCLEAR CHARGE:                   44
 NUMBER OF PRIMITIVE AOS:         256
 NUMBER OF SYMMETRY AOS:          250
 NUMBER OF CONTRACTIONS:          156   ( 156A   )
 NUMBER OF CORE ORBITALS:           6   (   6A   )
 NUMBER OF VALENCE ORBITALS:       32   (  32A   )


 NUCLEAR REPULSION ENERGY  215.44288770


 Eigenvalues of metric

         1 0.597E-03 0.228E-02 0.241E-02 0.356E-02 0.365E-02 0.772E-02 0.893E-02 0.102E-01


 Contracted 2-electron integrals neglected if value below      1.0D-11
 AO integral compression algorithm  1   Integral accuracy      1.0D-11

     263.193 MB (compressed) written to integral file ( 40.4%)


 NUMBER OF SORTED TWO-ELECTRON INTEGRALS:   74988381.     BUFFER LENGTH:  32768
 NUMBER OF SEGMENTS:  11  SEGMENT LENGTH:    7292229      RECORD LENGTH: 524288

 Memory used in sort:       7.85 MW

 SORT1 READ    81493110. AND WROTE    63646775. INTEGRALS IN    188 RECORDS. CPU TIME:     0.74 SEC, REAL TIME:     1.10 SEC
 SORT2 READ    63646775. AND WROTE    74988381. INTEGRALS IN   1004 RECORDS. CPU TIME:     1.08 SEC, REAL TIME:     1.36 SEC

 FILE SIZES:   FILE 1:   283.4 MBYTE,  FILE 4:   788.6 MBYTE,   TOTAL:   1072.0 MBYTE

 OPERATOR DM      FOR CENTER  0  COORDINATES:    0.000000    0.000000    0.000000


 **********************************************************************************************************************************
 DATASETS  * FILE   NREC   LENGTH (MB)   RECORD NAMES
              1      19      253.95       500      610      700      900      950      970     1000      129      960     1100   
                                          VAR    BASINP    GEOM    SYMINP    ZMAT    AOBASIS   BASIS     P2S    ABASIS      S 
                                         1400     1410     1200     1210     1080     1600     1650     1300     1700   
                                           T        V       H0       H01     AOSYM     SMH    MOLCAS    ERIS     OPER   

 PROGRAMS   *        TOTAL       INT
 CPU TIMES  *         6.21      6.14
 REAL TIME  *         7.16 SEC
 DISK USED  *         1.07 GB      
 **********************************************************************************************************************************


 PROGRAM * RHF-SCF (CLOSED SHELL)       Authors: W. Meyer, H.-J. Werner


 NUMBER OF ELECTRONS:      22+   22-    SPACE SYMMETRY=1    SPIN SYMMETRY: Singlet 
 CONVERGENCE THRESHOLDS:    1.00E-06 (Density)    1.00E-07 (Energy)
 MAX. NUMBER OF ITERATIONS:       60
 INTERPOLATION TYPE:            DIIS
 INTERPOLATION STEPS:              2 (START)      1 (STEP)
 LEVEL SHIFTS:                  0.00 (CLOSED)  0.00 (OPEN) 



 Orbital guess generated from atomic densities. Full valence occupancy:   22

 Molecular orbital dump at record        2100.2

 Initial occupancy:  22

 ITERATION    DDIFF          GRAD             ENERGY        2-EL.EN.            DIPOLE MOMENTS         DIIS   ORB.
    1      0.000D+00      0.000D+00      -231.77938708    585.621630   -0.01500   -0.38678    0.20523    0    start
    2      0.000D+00      0.363D-02      -231.83825503    581.261486   -0.04500   -0.14271   -0.03130    1    diag
    3      0.292D-02      0.139D-02      -231.84535568    583.417683   -0.04603   -0.25907    0.00910    2    diag
    4      0.141D-02      0.520D-03      -231.84667205    582.843654   -0.04383   -0.20633   -0.01319    3    diag
    5      0.541D-03      0.942D-04      -231.84671627    582.812173   -0.04530   -0.22274   -0.01926    4    diag
    6      0.128D-03      0.429D-04      -231.84672566    582.826761   -0.04399   -0.21524   -0.01868    5    diag
    7      0.476D-04      0.951D-05      -231.84672653    582.825006   -0.04344   -0.21571   -0.01851    6    diag
    8      0.158D-04      0.283D-05      -231.84672663    582.825274   -0.04320   -0.21546   -0.01869    7    diag
    9      0.486D-05      0.112D-05      -231.84672664    582.825229   -0.04300   -0.21547   -0.01863    8    diag
   10      0.204D-05      0.456D-06      -231.84672664    582.825256   -0.04293   -0.21543   -0.01861    9    orth
   11      0.948D-06      0.157D-06      -231.84672664    582.825267   -0.04289   -0.21544   -0.01863    0    orth

 Final occupancy:  22

 !RHF STATE 1.1 Energy               -231.846726642460
 Nuclear energy                       215.44288770
 One-electron energy                 -738.70224762
 Two-electron energy                  291.41263328
 Virial quotient                       -1.00223611
 !RHF STATE 1.1 Dipole moment          -0.04289086    -0.21543945    -0.01862503
 Dipole moment /Debye                  -0.10901054    -0.54755661    -0.04733701

 Orbital energies:

         1.1          2.1          3.1          4.1          5.1          6.1          7.1          8.1          9.1         10.1
    -11.241445   -11.239743   -11.236390   -11.228332   -11.227810   -11.226433    -1.113204    -1.003658    -0.992801    -0.847103

        11.1         12.1         13.1         14.1         15.1         16.1         17.1         18.1         19.1         20.1
     -0.799912    -0.677826    -0.672083    -0.606079    -0.579236    -0.567672    -0.541966    -0.510518    -0.466507    -0.444822

        21.1         22.1         23.1         24.1
     -0.420914    -0.294037     0.110651     0.152932

 HOMO     22.1    -0.294037 =      -8.0012eV
 LUMO     23.1     0.110651 =       3.0110eV
 LUMO-HOMO         0.404688 =      11.0121eV


 **********************************************************************************************************************************
 DATASETS  * FILE   NREC   LENGTH (MB)   RECORD NAMES
              1      19      253.95       500      610      700      900      950      970     1000      129      960     1100   
                                          VAR    BASINP    GEOM    SYMINP    ZMAT    AOBASIS   BASIS     P2S    ABASIS      S 
                                         1400     1410     1200     1210     1080     1600     1650     1300     1700   
                                           T        V       H0       H01     AOSYM     SMH    MOLCAS    ERIS     OPER   

              2       4        3.48       700     1000      520     2100   
                                         GEOM     BASIS   MCVARS     RHF  

 PROGRAMS   *        TOTAL        HF       INT
 CPU TIMES  *        13.27      7.05      6.14
 REAL TIME  *        14.76 SEC
 DISK USED  *         1.07 GB      
 **********************************************************************************************************************************


 PROGRAM * OPT (Geometry optimization)     Authors: F. Eckert and H.-J. Werner


 BFGS update of hessian

 *** Long output written to logfile /gpfs/home/tnorthey/molpro/chd/chd_opt_freq.log ***


 Geometry optimization using default procedure for command HF-SCF

 Geometry written to block  1 of record 700

 XYZ inputs for each point on the optimization path will be saved in files chd_opt_xx.xyz

 Making model hessian for cartesian coordinates

 Entering Rational Function Geometry Optimization

 ITER.   ENERGY(OLD)    ENERGY(NEW)      DE          GRADMAX     GRADNORM    GRADRMS     STEPMAX     STEPLEN     STEPRMS   CPU-time
   1  -231.84672664  -231.87840868    -0.03168203  0.14941102  0.23674131  0.00657615  0.13914506  0.30000000  0.08017837     26.60
   2  -231.87840868  -231.88519813    -0.00678945  0.05959384  0.09176341  0.00254898  0.10973720  0.25333906  0.06770771     52.83
   3  -231.88519813  -231.88550938    -0.00031125  0.00736203  0.01627847  0.00045218  0.04874511  0.09003581  0.02406308     78.56
   4  -231.88550938  -231.88567246    -0.00016308  0.00688551  0.00979769  0.00027216  0.05668194  0.08914724  0.02382560    104.33
   5  -231.88567246  -231.88574626    -0.00007380  0.00447613  0.00700096  0.00019447  0.03773496  0.05684427  0.01519227    129.48
   6  -231.88574626  -231.88578111    -0.00003486  0.00254849  0.00512723  0.00014242  0.01787617  0.03352445  0.00895979    154.63
   7  -231.88578111  -231.88578952    -0.00000840  0.00146912  0.00221790  0.00006161  0.01175232  0.01859935  0.00497088    179.18
   8  -231.88578952  -231.88579114    -0.00000163  0.00023421  0.00067212  0.00001867  0.00857832  0.01123119  0.00300166    203.08
   9  -231.88579114  -231.88579148    -0.00000034  0.00019001  0.00037616  0.00001045  0.00298210  0.00489431  0.00130806    228.26

 END OF GEOMETRY OPTIMIZATION.

 Current geometry (xyz format, in Angstrom)


 Dump information in style XYZ to chd_opt.xyz                                                                     

   14
 HF-SCF000/6-311G**  ENERGY=-231.88579148
 C          0.7291047538       -1.2391639672       -0.1156208908
 C          1.4061942946        0.0696892340        0.2170347497
 C          0.7338393146        1.2085297963        0.1715987073
 C         -0.7008200942        1.2200484473       -0.1727758905
 C         -1.4042196194        0.0992162046       -0.1648091164
 C         -0.7631216549       -1.2103733341        0.2299797691
 H          1.2132227917       -2.0603303894        0.4037007727
 H          0.8557226872       -1.4297937295       -1.1824185720
 H          2.4592795838        0.0630866073        0.4420127770
 H          1.2226079020        2.1465272116        0.3704949954
 H         -1.1636162300        2.1605530864       -0.4170733426
 H         -2.4569233072        0.1107714979       -0.3913609702
 H         -1.2700795905       -2.0418289120       -0.2496644405
 H         -0.8939408625       -1.3464569009        1.3046635596

 **********************************************************************************************************************************

 Geometry written to block  1 of record 700


 **********************************************************************************************************************************
 DATASETS  * FILE   NREC   LENGTH (MB)   RECORD NAMES
              1      19      260.11       500      610      700      900      950      970     1000      129      960     1100   
                                          VAR    BASINP    GEOM    SYMINP    ZMAT    AOBASIS   BASIS     P2S    ABASIS      S 
                                         1400     1410     1200     1210     1080     1600     1650     1300     1700   
                                           T        V       H0       H01     AOSYM     SMH    MOLCAS    ERIS     OPER   

              2       4        3.48       700     1000      520     2100   
                                         GEOM     BASIS   MCVARS     RHF  

 PROGRAMS   *        TOTAL      OPTG        HF       INT
 CPU TIMES  *       241.53    228.26      7.05      6.14
 REAL TIME  *       255.19 SEC
 DISK USED  *         1.10 GB      
 **********************************************************************************************************************************


 PROGRAM * HESSIAN

 Computing numerical hessian using default procedure for command HF-SCF

 Using no symmetry in wavefunction calculations

 Running default procedure: HF-SCF000


 Numerically approximating hessian using central gradient differences

 Task list generated. Total number of displacements:     84

    8 tasks completed, CPU=3m 40s Elapsed=3m 40s
   16 tasks completed, CPU=7m 24s Elapsed=7m 24s
   24 tasks completed, CPU=11m 8s Elapsed=11m 8s
   32 tasks completed, CPU=14m 48s Elapsed=14m 48s
   40 tasks completed, CPU=18m 27s Elapsed=18m 28s
   48 tasks completed, CPU=22m 2s Elapsed=22m 2s
   56 tasks completed, CPU=25m 37s Elapsed=25m 37s
   64 tasks completed, CPU=29m 14s Elapsed=29m 14s
   72 tasks completed, CPU=32m 49s Elapsed=32m 49s
   80 tasks completed, CPU=36m 23s Elapsed=36m 24s

 Numerical HF-SCF000 hessian completed. CPU-time:  2292.18 sec, Elapsed:  2292.55 sec

 HF-SCF hessian saved to record  5300.2

 PROGRAM * FREQUENCIES (Calculation of harmonuc vibrational spectra for HF-SCF)


 Permanent Dipole Moment [debye]
   1-  3   -0.005179   -0.416730    0.008344

 Dipole Moment Norm    0.4168458 [debye]

 Dipole Moment Derivatives [debye/ang]
                   1             2             3             4             5             6             7             8
         1     0.1340513    -0.5188250     0.1464489    -0.1631964    -0.1783382    -0.1039113     0.4961418     1.2212912
         2    -0.3196766     0.5785916    -0.2219733     0.0072802     0.3341777     0.4750096     0.4324563     0.0113186
         3    -0.0893069    -0.1320115     1.3021300     0.3556386     0.2429761    -1.0754292     0.2952550     0.2582067
                   9            10            11            12            13            14            15            16
         1     0.4892758     0.4524233    -1.2088469     0.5360204    -0.1601304     0.1859713    -0.1209422     0.1578522
         2     0.2852631    -0.4300851     0.0280221    -0.3366489     0.0218240     0.2917814    -0.5346325     0.3275897
         3    -0.7236157     0.3082135    -0.3021391    -0.6951194     0.3494870    -0.3171420    -1.0372420    -0.1007097
                  17            18            19            20            21            22            23            24
         1     0.5374169     0.1271238    -0.0348156     0.4394940    -0.3074885     0.2374971     0.1686341     0.3279388
         2     0.5743693     0.2514158     0.4252233    -0.5305608     0.5136910    -0.2668789    -0.0823753    -0.4541231
         3     0.1688495     1.2833564    -0.2042902     0.3069576     0.0385267     0.1056967    -0.1219208    -0.8554690
                  25            26            27            28            29            30            31            32
         1    -0.6634648    -0.0715601    -0.3232821     0.0025134    -0.3680123    -0.2417347     0.0228720     0.3426883
         2    -0.0584213     0.1659082    -0.1189043    -0.3943902    -0.4701958    -0.1725997     0.3715392    -0.4705998
         3    -0.2653032    -0.0525661     0.6293233    -0.1891748    -0.1833731     0.6697785    -0.2015507     0.2429193
                  33            34            35            36            37            38            39            40
         1    -0.2535669    -0.6585742     0.0788023    -0.3260944    -0.0597456    -0.4675577    -0.2995236     0.2402925
         2     0.2348622     0.0685803     0.1715585     0.1486721    -0.4483120    -0.5437711    -0.4769239     0.2632240
         3     0.6495127    -0.2674124     0.0814372     0.6192320    -0.1915476    -0.2732562     0.0762794     0.0954537
                  41            42
         1    -0.1611130     0.3472819
         2    -0.0598969     0.4068088
         3     0.0811197    -0.8811731

 Projecting out rotations and translations

   Low Vibration      Wavenumber
        Nr             [1/cm] 
        1                0.00
        2                0.00
        3                0.00
        4                0.00
        5                0.00
        6                0.00

     Vibration        Wavenumber
        Nr             [1/cm] 
        1              200.63
        2              332.60
        3              516.70
        4              557.97
        5              607.15
        6              739.63
        7              830.35
        8              857.27
        9              901.75
       10              986.99
       11             1008.86
       12             1075.75
       13             1096.01
       14             1106.02
       15             1133.23
       16             1147.81
       17             1262.29
       18             1288.71
       19             1293.02
       20             1372.56
       21             1465.47
       22             1489.48
       23             1521.65
       24             1551.59
       25             1592.66
       26             1607.90
       27             1803.95
       28             1854.38
       29             3125.07
       30             3133.66
       31             3200.23
       32             3201.18
       33             3300.05
       34             3306.80
       35             3324.96
       36             3336.60

 FREQUENCIES * CALCULATION OF NORMAL MODES FOR HF-SCF


 Atomic Coordinates

  Nr  Atom  Charge       X              Y              Z

   1   C     6.00    1.377808301   -2.341680521   -0.218491818
   2   C     6.00    2.657322095    0.131693566    0.410136236
   3   C     6.00    1.386755324    2.283790328    0.324274560
   4   C     6.00   -1.324358041    2.305557424   -0.326499114
   5   C     6.00   -2.653590499    0.187491454   -0.311444093
   6   C     6.00   -1.442090927   -2.287274110    0.434598778
   7   H     1.00    2.292658804   -3.893460162    0.762883897
   8   H     1.00    1.617081517   -2.701918563   -2.234447266
   9   H     1.00    4.647364877    0.119216410    0.835283092
  10   H     1.00    2.310394093    4.056348549    0.700134072
  11   H     1.00   -2.198915989    4.082853611   -0.788154391
  12   H     1.00   -4.642912160    0.209327794   -0.739565050
  13   H     1.00   -2.400102582   -3.858497437   -0.471797416
  14   H     1.00   -1.689303402   -2.544434781    2.465456812

 Frequencies dumped to record   5400.2

 Gradient norm at reference geometry: 0.37616D-03

 Molecule is not in standard orientation!
 Symmetry information for normal modes not available!

 Normal Modes

                              1 A         2 A         3 A         4 A         5 A  
 Wavenumbers [cm-1]          200.63      332.60      516.70      557.97      607.15
 Intensities [km/mol]          0.35        0.73        5.60        0.07        0.32
 Intensities [relative]        0.49        1.02        7.84        0.10        0.44
           GX1              0.02986    -0.00758     0.08468     0.01249     0.02579
           GY1             -0.02694     0.03562    -0.08108    -0.00973     0.08272
           GZ1              0.10648    -0.03089    -0.03069    -0.00464     0.01436
           GX2              0.01172    -0.01083    -0.03047     0.01128     0.14465
           GY2              0.01710     0.00137    -0.05601     0.02046    -0.00296
           GZ2             -0.03538     0.11957     0.03140    -0.09869     0.01078
           GX3              0.01630     0.02583    -0.06351    -0.02760     0.01270
           GY3              0.01622     0.01234    -0.06863     0.00075    -0.08898
           GZ3             -0.06814    -0.08563    -0.02805     0.10944     0.01502
           GX4             -0.01581     0.02542    -0.06167     0.02751    -0.01510
           GY4              0.01988    -0.01706     0.06891    -0.00515    -0.08925
           GZ4              0.06732    -0.08486    -0.03113    -0.10944    -0.01079
           GX5             -0.01122    -0.01081    -0.02896    -0.01076    -0.14468
           GY5              0.01908     0.00461     0.05820     0.02549     0.00048
           GZ5              0.03448     0.11945     0.02853     0.09767    -0.01074
           GX6             -0.03065    -0.00858     0.08687    -0.01263    -0.02356
           GY6             -0.03113    -0.03684     0.07723    -0.00908     0.08258
           GZ6             -0.10510    -0.02921    -0.03446     0.00500    -0.01826
           GX7             -0.03095     0.01237    -0.01085     0.01985    -0.08355
           GY7              0.06257    -0.05338    -0.05200     0.09535     0.01259
           GZ7              0.30630    -0.19325     0.10627     0.15751     0.00599
           GX8              0.19453    -0.04347     0.19450     0.04061     0.03037
           GY8             -0.20983     0.22967    -0.17708    -0.21227     0.07756
           GZ8              0.15967    -0.06927     0.00162     0.03789     0.01523
           GX9              0.03166    -0.04977    -0.06583    -0.00594     0.16057
           GY9              0.03887    -0.02343     0.02786     0.01226     0.02510
           GZ9             -0.12545     0.29766     0.19850    -0.01742    -0.06264
           GX10             0.04734     0.00336    -0.04407    -0.09208    -0.09137
           GY10             0.02404     0.02497    -0.10163    -0.01793    -0.02511
           GZ10            -0.18154    -0.08966     0.08430     0.35612    -0.02640
           GX11            -0.04661     0.00250    -0.04139     0.09134     0.09063
           GY11             0.03397    -0.02926     0.10676    -0.03730    -0.02638
           GZ11             0.18013    -0.08816     0.07985    -0.35431     0.02767
           GX12            -0.03060    -0.04921    -0.06674     0.00614    -0.15984
           GY12             0.04569     0.03884    -0.01660     0.01294     0.03245
           GZ12             0.12333     0.29621     0.19949     0.01761     0.06113
           GX13             0.03240     0.01370    -0.00925    -0.01735     0.08388
           GY13             0.04700     0.04368     0.05717     0.08816     0.00993
           GZ13            -0.30887    -0.19561     0.10400    -0.16164    -0.00652
           GX14            -0.20027    -0.04985     0.19936    -0.04609    -0.02836
           GY14            -0.21164    -0.23137     0.17191    -0.21226     0.07755
           GZ14            -0.14956    -0.05831    -0.00666    -0.02778    -0.01889

                              6 A         7 A         8 A         9 A        10 A  
 Wavenumbers [cm-1]          739.63      830.35      857.27      901.75      986.99
 Intensities [km/mol]         69.12       25.30        1.36        0.58        6.84
 Intensities [relative]       96.74       35.41        1.90        0.81        9.58
           GX1             -0.03617    -0.01346     0.02370    -0.08200     0.03502
           GY1              0.01574    -0.00179    -0.01957     0.11091     0.09845
           GZ1             -0.02159    -0.06637    -0.03071     0.01763     0.02417
           GX2              0.00671    -0.04656     0.05529    -0.06640    -0.09142
           GY2              0.03680     0.01467     0.01265    -0.05151    -0.05256
           GZ2             -0.03799     0.05981    -0.01600    -0.02577    -0.02832
           GX3              0.04653     0.03874     0.04552    -0.00633     0.02541
           GY3              0.05339     0.05977     0.01358    -0.04606    -0.03286
           GZ3             -0.02013     0.02091    -0.09322    -0.03470    -0.00533
           GX4              0.04497     0.03712    -0.04517     0.00514     0.02617
           GY4             -0.05551    -0.05973     0.01932    -0.04449     0.03199
           GZ4             -0.01735     0.02378     0.09241     0.03684    -0.00693
           GX5              0.00568    -0.04700    -0.05485     0.06478    -0.09008
           GY5             -0.03875    -0.01047     0.01493    -0.05192     0.05367
           GZ5             -0.03630     0.06042     0.01537     0.02825    -0.03084
           GX6             -0.03656    -0.01355    -0.02420     0.08506     0.03206
           GY6             -0.01576    -0.00108    -0.01740     0.10744    -0.09828
           GZ6             -0.02082    -0.06634     0.03163    -0.02283     0.02885
           GX7             -0.04359    -0.14361     0.02410    -0.16569     0.21795
           GY7              0.13095     0.09105     0.01153     0.14755     0.22058
           GZ7              0.16953     0.20658     0.02016     0.14750     0.04730
           GX8              0.02867     0.32791     0.00436    -0.02904     0.10615
           GY8             -0.19575    -0.15095    -0.10064    -0.03053     0.09577
           GZ8              0.02777     0.00295    -0.01498     0.04967     0.03117
           GX9             -0.07996     0.00019    -0.05054    -0.09920    -0.09790
           GY9             -0.08136    -0.04590    -0.02535    -0.16987    -0.16605
           GZ9              0.36317    -0.15389     0.48590     0.09836    -0.02434
           GX10            -0.09218     0.08175    -0.03595     0.01048     0.14939
           GY10             0.04508     0.09435    -0.00788    -0.07991    -0.11432
           GZ10             0.36128    -0.24749     0.22223     0.06271     0.05441
           GX11            -0.09337     0.07912     0.03551    -0.01239     0.15213
           GY11            -0.02510    -0.10829    -0.01954    -0.08244     0.11271
           GZ11             0.36294    -0.24256    -0.22154    -0.05902     0.04910
           GX12            -0.07792     0.00163     0.05030     0.09444    -0.09342
           GY12             0.10045     0.03876    -0.04979    -0.17663     0.16738
           GZ12             0.35844    -0.15631    -0.48437    -0.09028    -0.03246
           GX13            -0.04703    -0.14603    -0.02374     0.16980     0.21128
           GY13            -0.12149    -0.07723     0.01139     0.13529    -0.22424
           GZ13             0.17568     0.21089    -0.02101    -0.15406     0.05833
           GX14             0.03412     0.33179    -0.00744     0.02859     0.10323
           GY14             0.19604     0.14192    -0.09983    -0.03369    -0.09666
           GZ14             0.01845    -0.00406     0.01971    -0.04805     0.03581

                             11 A        12 A        13 A        14 A        15 A  
 Wavenumbers [cm-1]         1008.86     1075.75     1096.01     1106.02     1133.23
 Intensities [km/mol]          1.13        5.83        0.30        0.69        0.33
 Intensities [relative]        1.59        8.17        0.42        0.97        0.46
           GX1             -0.04923    -0.04713     0.02213     0.01827     0.10240
           GY1             -0.01052     0.08559     0.00358    -0.04239     0.04544
           GZ1              0.01286    -0.01767     0.05267     0.01338    -0.05420
           GX2              0.04586     0.08318    -0.02258    -0.05075    -0.03222
           GY2             -0.03408    -0.00230    -0.01418    -0.00721    -0.03784
           GZ2              0.01048     0.04556     0.01702     0.04396     0.00808
           GX3              0.12232    -0.03920     0.02065     0.03451     0.03875
           GY3              0.07085    -0.08068     0.00384     0.04638    -0.01247
           GZ3              0.05012    -0.03916    -0.06890    -0.05542     0.01407
           GX4             -0.12036    -0.03713    -0.02021     0.03338    -0.03900
           GY4              0.07168     0.07985     0.00713    -0.04990    -0.01226
           GZ4             -0.05343    -0.04274     0.06854    -0.05347    -0.01355
           GX5             -0.04679     0.08330     0.02167    -0.05069     0.03106
           GY5             -0.03331     0.00206    -0.01553     0.01079    -0.03908
           GZ5             -0.00887     0.04526    -0.01625     0.04366    -0.00622
           GX6              0.04892    -0.04960    -0.02179     0.01977    -0.10104
           GY6             -0.01238    -0.08496     0.00222     0.04234     0.05100
           GZ6             -0.01236    -0.01363    -0.05270     0.01144     0.05195
           GX7             -0.11061    -0.14145     0.06758     0.01501     0.28867
           GY7             -0.04696     0.11749    -0.06237    -0.08927     0.21462
           GZ7              0.01507     0.12250    -0.09677    -0.05717     0.04064
           GX8             -0.06131     0.15065     0.03771     0.01292     0.23419
           GY8             -0.03210    -0.02029     0.19849     0.06655     0.00962
           GZ8              0.01629     0.02613     0.01591    -0.00766    -0.03267
           GX9              0.06759     0.12873     0.04256     0.03874    -0.02615
           GY9             -0.24714     0.02652     0.01655     0.02088    -0.10905
           GZ9             -0.07267    -0.16626    -0.28859    -0.37063    -0.02395
           GX10             0.24843    -0.09793    -0.05478    -0.09430     0.21852
           GY10             0.01316    -0.09003    -0.07403     0.01404    -0.09526
           GZ10             0.05617     0.15016     0.48188     0.41372    -0.04187
           GX11            -0.24789    -0.09534     0.05243    -0.09449    -0.22122
           GY11             0.01720     0.09945    -0.09901     0.00913    -0.08720
           GZ11            -0.05726     0.14381    -0.47633     0.41615     0.04693
           GX12            -0.07440     0.12778    -0.04251     0.03859     0.02313
           GY12            -0.24158    -0.03785     0.03143    -0.03953    -0.10883
           GZ12             0.08418    -0.16302     0.28610    -0.37058     0.02867
           GX13             0.10920    -0.14479    -0.06870     0.01828    -0.28294
           GY13            -0.05053    -0.10754    -0.05488     0.08576     0.22090
           GZ13            -0.01279     0.12804     0.09886    -0.06166    -0.05134
           GX14             0.06038     0.15080    -0.03262     0.01169    -0.23368
           GY14            -0.03442     0.01763     0.19795    -0.06792     0.01726
           GZ14            -0.01475     0.02516    -0.02548    -0.00445     0.03204

                             16 A        17 A        18 A        19 A        20 A  
 Wavenumbers [cm-1]         1147.81     1262.29     1288.71     1293.02     1372.56
 Intensities [km/mol]          2.73        0.00        1.19        7.07        5.86
 Intensities [relative]        3.82        0.00        1.66        9.89        8.20
           GX1             -0.02208     0.01587     0.00618    -0.02088    -0.05248
           GY1             -0.00415     0.01180    -0.00807    -0.00353    -0.00729
           GZ1             -0.10292    -0.01726     0.03000     0.03363     0.03982
           GX2              0.00509    -0.01298     0.02579    -0.01378     0.01829
           GY2              0.00445     0.00147    -0.03289     0.02344     0.02218
           GZ2              0.08993    -0.00272    -0.03001    -0.05103     0.02553
           GX3              0.00121     0.00506    -0.02300     0.01285     0.01151
           GY3              0.00804    -0.01569     0.01908    -0.00300    -0.02969
           GZ3             -0.03687     0.00419     0.00531     0.00186    -0.00273
           GX4             -0.00086    -0.00540    -0.02354     0.01297    -0.01235
           GY4              0.00970    -0.01567    -0.01821     0.00275    -0.02923
           GZ4              0.03647    -0.00349     0.00612     0.00177     0.00412
           GX5             -0.00524     0.01292     0.02673    -0.01445    -0.01768
           GY5              0.00037     0.00112     0.03072    -0.02542     0.02141
           GZ5             -0.09005     0.00284    -0.03152    -0.04983    -0.02667
           GX6              0.02213    -0.01553     0.00637    -0.02072     0.05223
           GY6              0.00019     0.01297     0.00936     0.00568    -0.01059
           GZ6              0.10304     0.01653     0.02981     0.03350    -0.03931
           GX7             -0.10810    -0.25955    -0.06446    -0.23835     0.39311
           GY7              0.11484    -0.12654    -0.09852    -0.17275     0.24382
           GZ7              0.17372     0.01915    -0.04550    -0.03642     0.01737
           GX8              0.01437    -0.00848     0.24459     0.36281    -0.36800
           GY8             -0.32048    -0.04626     0.19883     0.29023    -0.10307
           GZ8             -0.03533    -0.00789     0.01813     0.02597     0.02445
           GX9              0.07785    -0.01723     0.01374    -0.04691     0.02546
           GY9              0.04790     0.43069    -0.44219     0.25310     0.15497
           GZ9             -0.23836     0.02827     0.02262     0.10534    -0.00558
           GX10            -0.12360     0.38993    -0.30625     0.18805     0.13248
           GY10             0.04862    -0.23284     0.17949    -0.11216    -0.09893
           GZ10             0.08804     0.06883    -0.04900     0.07853     0.01619
           GX11             0.12527    -0.39496    -0.31262     0.19105    -0.13503
           GY11             0.04090    -0.22436    -0.17396     0.11052    -0.09584
           GZ11            -0.09020    -0.05781    -0.04086     0.07315    -0.01150
           GX12            -0.07696     0.02899     0.02591    -0.05391    -0.02126
           GY12             0.06113     0.42655     0.44407    -0.24618     0.15603
           GZ12             0.23550    -0.04874     0.00152     0.11696    -0.00174
           GX13             0.11155     0.25641    -0.06003    -0.23239    -0.38675
           GY13             0.10328    -0.13495     0.09714     0.17664     0.25377
           GZ13            -0.17914    -0.01276    -0.05037    -0.04476    -0.02912
           GX14            -0.02335     0.00567     0.23853     0.35418     0.36588
           GY14            -0.31778    -0.04470    -0.20464    -0.29846    -0.11504
           GZ14             0.05053     0.00994     0.02779     0.03991    -0.01928

                             21 A        22 A        23 A        24 A        25 A  
 Wavenumbers [cm-1]         1465.47     1489.48     1521.65     1551.59     1592.66
 Intensities [km/mol]          0.79        1.60        2.90        1.83        2.37
 Intensities [relative]        1.10        2.24        4.06        2.56        3.31
           GX1             -0.06097    -0.11724    -0.05524     0.00931     0.02544
           GY1             -0.04020    -0.04124    -0.07437     0.01135    -0.04408
           GZ1             -0.00237    -0.02513    -0.00390     0.00330    -0.02432
           GX2              0.00281     0.02276     0.03624    -0.03083     0.00181
           GY2             -0.04613     0.02118     0.06045    -0.07922     0.00543
           GZ2             -0.00446    -0.00594     0.01658    -0.01683    -0.00221
           GX3              0.03880     0.00915    -0.04686     0.09728     0.00091
           GY3             -0.02220    -0.01627     0.01118     0.00619    -0.00715
           GZ3              0.01005     0.00285    -0.01222     0.02288     0.00050
           GX4              0.03933    -0.00988    -0.04681    -0.09723     0.00118
           GY4              0.02151    -0.01620    -0.01043     0.00773     0.00714
           GZ4              0.00900    -0.00215    -0.01163    -0.02328     0.00018
           GX5              0.00403    -0.02205     0.03458     0.02875     0.00165
           GY5              0.04582     0.02169    -0.06042    -0.07936    -0.00551
           GZ5             -0.00663     0.00502     0.01939     0.02066    -0.00196
           GX6             -0.05953     0.11605    -0.05363    -0.00914     0.02641
           GY6              0.04158    -0.04302     0.07571     0.01166     0.04193
           GZ6             -0.00427     0.02710    -0.00751    -0.00385    -0.02622
           GX7              0.32910     0.11117     0.31633     0.01346    -0.11487
           GY7              0.18953     0.12629     0.12062     0.06096     0.18193
           GZ7             -0.00095     0.02447    -0.03147     0.06539     0.43163
           GX8              0.16608     0.44121     0.14286    -0.04546    -0.21579
           GY8              0.09867     0.21038     0.07176     0.07330     0.40710
           GZ8             -0.00116    -0.00044    -0.00953    -0.00964    -0.11966
           GX9              0.00039     0.01954     0.04734    -0.03839     0.00277
           GY9              0.31484     0.12926    -0.22686     0.37193    -0.01714
           GZ9              0.03215     0.02479    -0.01284     0.03635    -0.00102
           GX10            -0.27276     0.03753     0.27496    -0.27115    -0.00735
           GY10             0.15296    -0.03362    -0.16756     0.22456    -0.00294
           GZ10            -0.05564     0.01669     0.05406    -0.05011    -0.00152
           GX11            -0.27706    -0.03660     0.27881     0.27819    -0.00747
           GY11            -0.14801    -0.03227     0.16178     0.21972     0.00290
           GZ11            -0.04858    -0.01482     0.04620     0.03975    -0.00170
           GX12            -0.00828    -0.01573     0.05349     0.04876     0.00319
           GY12            -0.31227     0.13003     0.22294     0.36929     0.01656
           GZ12             0.04687    -0.03115    -0.02318    -0.05387    -0.00175
           GX13             0.32346    -0.10730     0.31354    -0.01108    -0.11852
           GY13            -0.19791     0.12789    -0.13121     0.05779    -0.15728
           GZ13             0.00804    -0.03048    -0.02559    -0.06822     0.43750
           GX14             0.16231    -0.43551     0.14238     0.04784    -0.22590
           GY14            -0.10243     0.22222    -0.07671     0.07214    -0.40439
           GZ14             0.00357    -0.00981    -0.00595     0.00614    -0.09968

                             26 A        27 A        28 A        29 A        30 A  
 Wavenumbers [cm-1]         1607.90     1803.95     1854.38     3125.07     3133.66
 Intensities [km/mol]          1.91        2.26        0.40       17.35       71.45
 Intensities [relative]        2.67        3.16        0.56       24.28      100.00
           GX1             -0.02851     0.00915     0.00165    -0.00863     0.01431
           GY1              0.04992    -0.01297    -0.02115     0.01110    -0.02366
           GZ1              0.02451    -0.00488     0.00079     0.05037    -0.04411
           GX2             -0.00641    -0.05981    -0.04938     0.00110    -0.00112
           GY2             -0.01244     0.12408     0.12590     0.00072    -0.00025
           GZ2              0.00152     0.00086     0.00148     0.00036    -0.00047
           GX3              0.01261     0.10274     0.06739     0.00137    -0.00048
           GY3              0.00095    -0.09595    -0.11708    -0.00021     0.00007
           GZ3              0.00310     0.01384     0.00783     0.00018     0.00012
           GX4             -0.01261    -0.10532     0.07062    -0.00141    -0.00038
           GY4              0.00116    -0.09360     0.11545    -0.00018    -0.00004
           GZ4             -0.00317    -0.00937     0.00232    -0.00016     0.00013
           GX5              0.00611     0.06316    -0.05282    -0.00114    -0.00103
           GY5             -0.01273     0.12218    -0.12433     0.00076     0.00020
           GZ5             -0.00092    -0.00667     0.00740    -0.00043    -0.00045
           GX6              0.02993    -0.00949     0.00222     0.00983     0.01423
           GY6              0.04818    -0.01248     0.02113     0.00977     0.02045
           GZ6             -0.02698     0.00548    -0.00021    -0.05399    -0.04156
           GX7              0.12952    -0.06571    -0.00542     0.01848    -0.09678
           GY7             -0.15569    -0.06753    -0.04960    -0.02729     0.17047
           GZ7             -0.42806    -0.01718    -0.03493     0.03209    -0.12314
           GX8              0.20112    -0.01019     0.00403     0.07167    -0.07057
           GY8             -0.39643    -0.01773    -0.01920    -0.11217     0.10903
           GZ8              0.11925    -0.00212     0.00188    -0.64010     0.65310
           GX9             -0.00950    -0.07251    -0.06554    -0.01088     0.01382
           GY9              0.06622    -0.08606    -0.11473     0.00363    -0.00268
           GZ9              0.00444    -0.02970    -0.03525    -0.00077     0.00035
           GX10            -0.03377    -0.07273    -0.17208    -0.00219     0.00181
           GY10             0.02841    -0.01381    -0.00485    -0.00286     0.00158
           GZ10            -0.00952    -0.02083    -0.04399     0.00016    -0.00037
           GX11             0.03467     0.07232    -0.17195     0.00223     0.00161
           GY11             0.02800    -0.01476     0.00744    -0.00305    -0.00144
           GZ11             0.00821     0.02158    -0.04437    -0.00004    -0.00029
           GX12             0.01137     0.07008    -0.06236     0.01177     0.01300
           GY12             0.06584    -0.08649     0.11471     0.00351     0.00208
           GZ12            -0.00755     0.03376    -0.04073     0.00060     0.00019
           GX13            -0.13361     0.06383    -0.00409    -0.02534    -0.09959
           GY13            -0.13235    -0.06841     0.04803    -0.03873    -0.17047
           GZ13             0.43713     0.02039    -0.03723    -0.03777    -0.11213
           GX14            -0.21310     0.00970     0.00455    -0.07912    -0.06759
           GY14            -0.39821    -0.01780     0.01908    -0.08475    -0.07012
           GZ14            -0.10082     0.00296     0.00097     0.68958     0.61106

                             31 A        32 A        33 A        34 A        35 A  
 Wavenumbers [cm-1]         3200.23     3201.18     3300.05     3306.80     3324.96
 Intensities [km/mol]         59.76       41.21        2.00        7.24       60.80
 Intensities [relative]       83.64       57.67        2.80       10.14       85.10
           GX1              0.02456     0.02150    -0.00066    -0.00151    -0.00017
           GY1             -0.04141    -0.03777     0.00253     0.00344     0.00257
           GZ1              0.02884     0.04358    -0.00147    -0.00093    -0.00057
           GX2             -0.00360    -0.00345    -0.03756    -0.04946    -0.04292
           GY2              0.00123     0.00068     0.00012     0.00080     0.00464
           GZ2             -0.00042    -0.00035    -0.00803    -0.01061    -0.00894
           GX3             -0.00002     0.00025     0.01846     0.01488    -0.01406
           GY3             -0.00018     0.00018     0.03540     0.02441    -0.03866
           GZ3              0.00005     0.00008     0.00743     0.00562    -0.00677
           GX4              0.00000     0.00024     0.01803    -0.01387    -0.01337
           GY4             -0.00018    -0.00019    -0.03656     0.02396     0.03960
           GZ4             -0.00005     0.00009     0.00943    -0.00664    -0.00885
           GX5              0.00376    -0.00335    -0.03857     0.04799    -0.04432
           GY5              0.00117    -0.00056     0.00057    -0.00008    -0.00398
           GZ5              0.00038    -0.00032    -0.00831     0.01035    -0.00905
           GX6             -0.02651     0.02168    -0.00076     0.00159    -0.00027
           GY6             -0.04343     0.03773    -0.00265     0.00335    -0.00269
           GZ6             -0.02824     0.04060    -0.00137     0.00073    -0.00045
           GX7             -0.29492    -0.28555     0.01240     0.01780     0.01008
           GY7              0.49777     0.48894    -0.02545    -0.03279    -0.02285
           GZ7             -0.32101    -0.31379     0.01498     0.01904     0.01195
           GX8              0.00726     0.02963    -0.00178    -0.00037    -0.00091
           GY8             -0.01428    -0.04637    -0.00037    -0.00155    -0.00054
           GZ8             -0.03169    -0.21011     0.00297    -0.00518    -0.00166
           GX9              0.04717     0.04062     0.44516     0.57428     0.47070
           GY9             -0.00324    -0.00230    -0.00311    -0.00369    -0.00567
           GZ9              0.00887     0.00832     0.09608     0.12365     0.10070
           GX10             0.00079    -0.00259    -0.22048    -0.16202     0.20155
           GY10             0.00059    -0.00505    -0.42390    -0.30340     0.39833
           GZ10             0.00045    -0.00053    -0.08952    -0.06513     0.08314
           GX11            -0.00069    -0.00248    -0.21502     0.14994     0.19524
           GY11             0.00041     0.00512     0.43753    -0.29692    -0.40882
           GZ11            -0.00045    -0.00080    -0.11327     0.07788     0.10486
           GX12            -0.04870     0.03909     0.45718    -0.55707     0.48485
           GY12            -0.00242     0.00151    -0.00469     0.00601    -0.00250
           GZ12            -0.00909     0.00799     0.09933    -0.12076     0.10431
           GX13             0.31922    -0.28819     0.01351    -0.01827     0.01119
           GY13             0.52155    -0.47741     0.02649    -0.03226     0.02401
           GZ13             0.30713    -0.27966     0.01413    -0.01700     0.01129
           GX14            -0.00860     0.03017    -0.00177     0.00028    -0.00089
           GY14            -0.01369     0.03476     0.00058    -0.00128     0.00053
           GZ14             0.03896    -0.20872     0.00289     0.00525    -0.00190

                             36 A  
 Wavenumbers [cm-1]         3336.60
 Intensities [km/mol]         24.41
 Intensities [relative]       34.16
           GX1             -0.00072
           GY1              0.00259
           GZ1             -0.00007
           GX2             -0.03172
           GY2              0.00465
           GZ2             -0.00642
           GX3             -0.02233
           GY3             -0.04751
           GZ3             -0.00946
           GX4              0.02053
           GY4             -0.04630
           GZ4              0.01145
           GX5              0.03107
           GY5              0.00398
           GZ5              0.00610
           GX6              0.00079
           GY6              0.00252
           GZ6             -0.00005
           GX7              0.01056
           GY7             -0.02121
           GZ7              0.01125
           GX8              0.00003
           GY8             -0.00185
           GZ8             -0.00705
           GX9              0.33749
           GY9             -0.00577
           GZ9              0.07220
           GX10             0.26805
           GY10             0.50905
           GZ10             0.10799
           GX11            -0.24721
           GY11             0.49648
           GZ11            -0.12901
           GX12            -0.32946
           GY12             0.00003
           GZ12            -0.07078
           GX13            -0.01099
           GY13            -0.02107
           GZ13            -0.01008
           GX14            -0.00008
           GY14            -0.00150
           GZ14             0.00704


 Normal Modes of low/zero frequencies

                                  1           2           3           4           5
 Wavenumbers [cm-1]            0.00        0.00        0.00        0.00        0.00
 Intensities [km/mol]          0.00        0.00        0.00        0.00        0.00
 Intensities [relative]        0.00        0.00        0.00        0.00        0.00
           GX1              0.00000     0.00000     0.00000    -0.00000    -0.00000
           GY1              0.01076     0.05447    -0.07568     0.06025    -0.04520
           GZ1             -0.06468     0.09280     0.12593    -0.00117    -0.06668
           GX2             -0.01221     0.00460     0.01643     0.02279     0.07353
           GY2             -0.01570     0.04515    -0.07473     0.06183    -0.08649
           GZ2              0.06427     0.12010     0.08872    -0.05377    -0.05393
           GX3             -0.01875     0.03027     0.03274     0.01842     0.13113
           GY3             -0.01570     0.05799    -0.06669     0.06106    -0.05108
           GZ3              0.16109     0.06225     0.04878    -0.00837    -0.01879
           GX4             -0.01461     0.05278     0.03497    -0.00648     0.12516
           GY4              0.00712     0.08228    -0.05735     0.05872     0.02932
           GZ4              0.14465    -0.03072     0.03981     0.09529     0.00878
           GX5             -0.00773     0.02989     0.01914    -0.00484     0.06777
           GY5              0.00201     0.09642    -0.04720     0.05807     0.06528
           GZ5              0.03270    -0.06209     0.07092     0.14927     0.00021
           GX6             -0.00440    -0.02178    -0.00167     0.02495     0.00806
           GY6             -0.03040     0.08860    -0.04377     0.05979     0.02463
           GZ6             -0.08024    -0.00411     0.11606     0.10661    -0.03768
           GX7             -0.00122    -0.04999    -0.01468     0.03832    -0.03226
           GY7             -0.03412     0.05135    -0.06612     0.06217    -0.08024
           GZ7             -0.13450     0.13447     0.15472    -0.03385    -0.09200
           GX8              0.01420     0.06521     0.00372    -0.07692    -0.03012
           GY8              0.10992     0.03849    -0.11110     0.05738    -0.03079
           GZ8             -0.08072     0.10339     0.13270    -0.00978    -0.07283
           GX9             -0.01491    -0.01009     0.01499     0.03906     0.07748
           GY9             -0.02989     0.02697    -0.08246     0.06347    -0.14496
           GZ9              0.07652     0.18832     0.09525    -0.12987    -0.07412
           GX10            -0.02701     0.03612     0.04475     0.03189     0.18308
           GY10            -0.03100     0.05075    -0.06730     0.06208    -0.08007
           GZ10             0.25355     0.08204     0.02214    -0.04632    -0.00971
           GX11            -0.01749     0.08735     0.04968    -0.02504     0.16879
           GY11             0.02677     0.08844    -0.05854     0.05759     0.05787
           GZ11             0.22573    -0.07251     0.00738     0.12610     0.03604
           GX12            -0.00504     0.04478     0.02066    -0.02122     0.06405
           GY12             0.01635     0.11458    -0.03952     0.05643     0.12376
           GZ12             0.02092    -0.13035     0.06424     0.22532     0.02050
           GX13             0.00663    -0.00735    -0.01050    -0.00892    -0.04376
           GY13             0.01067     0.09268    -0.05176     0.05796     0.06006
           GZ13            -0.16310    -0.02643     0.13924     0.14558    -0.04431
           GX14            -0.01666    -0.09403    -0.01004     0.10275     0.02156
           GY14            -0.13032     0.10476    -0.00805     0.06267     0.01028
           GZ14            -0.09438    -0.01086     0.11957     0.11644    -0.03785

                                  6
 Wavenumbers [cm-1]            0.00
 Intensities [km/mol]          0.00
 Intensities [relative]        0.00
           GX1              0.14456
           GY1              0.03408
           GZ1              0.00358
           GX2              0.08067
           GY2              0.06403
           GZ2              0.01580
           GX3              0.02878
           GY3              0.03326
           GZ3              0.01252
           GX4              0.03205
           GY4             -0.03150
           GZ4             -0.00327
           GX5              0.08353
           GY5             -0.06389
           GZ5             -0.01510
           GX6              0.13942
           GY6             -0.03583
           GZ6             -0.01279
           GX7              0.17661
           GY7              0.05447
           GZ7              0.00593
           GX8              0.16510
           GY8              0.04378
           GZ8              0.00428
           GX9              0.07849
           GY9              0.11166
           GZ9              0.02740
           GX10            -0.01658
           GY10             0.05502
           GZ10             0.02132
           GX11            -0.00853
           GY11            -0.05191
           GZ11            -0.00496
           GX12             0.08550
           GY12            -0.11150
           GZ12            -0.02668
           GX13             0.18297
           GY13            -0.05741
           GZ13            -0.02140
           GX14             0.13383
           GY14            -0.04575
           GZ14            -0.01472


 Zero point energy:  0.13015384 [H]    28565.46 [1/CM]      341.72 [KJ/MOL]
 Frequency information read from record  5400.2

 Dump information in style MOLDEN to chd_opt_freq.mld                                                                

 Molecular orbitals read from record     2100.2  Type=RHF/CANONICAL (state 1.1)
 Occupation numbers read from record     2100.2  Type=RHF/RHF (state 1.1)
 Orbital energies read from record       2100.2  Type=RHF/CANONICAL (state 1.1)
 Redundancy group numbers read from rec  2100.2  Type=RHF/RHF (state 1.1)

 DUMP ORBITAL  1.1 AS ORBITAL    1  occ=    2.0000  eig=  -11.2238  GROUP=   2
 DUMP ORBITAL  2.1 AS ORBITAL    2  occ=    2.0000  eig=  -11.2233  GROUP=   2
 DUMP ORBITAL  3.1 AS ORBITAL    3  occ=    2.0000  eig=  -11.2222  GROUP=   2
 DUMP ORBITAL  4.1 AS ORBITAL    4  occ=    2.0000  eig=  -11.2221  GROUP=   2
 DUMP ORBITAL  5.1 AS ORBITAL    5  occ=    2.0000  eig=  -11.2192  GROUP=   2
 DUMP ORBITAL  6.1 AS ORBITAL    6  occ=    2.0000  eig=  -11.2185  GROUP=   2
 DUMP ORBITAL  7.1 AS ORBITAL    7  occ=    2.0000  eig=   -1.1300  GROUP=   2
 DUMP ORBITAL  8.1 AS ORBITAL    8  occ=    2.0000  eig=   -1.0114  GROUP=   2
 DUMP ORBITAL  9.1 AS ORBITAL    9  occ=    2.0000  eig=   -1.0050  GROUP=   2
 DUMP ORBITAL 10.1 AS ORBITAL   10  occ=    2.0000  eig=   -0.8475  GROUP=   2
 DUMP ORBITAL 11.1 AS ORBITAL   11  occ=    2.0000  eig=   -0.8003  GROUP=   2
 DUMP ORBITAL 12.1 AS ORBITAL   12  occ=    2.0000  eig=   -0.6878  GROUP=   2
 DUMP ORBITAL 13.1 AS ORBITAL   13  occ=    2.0000  eig=   -0.6712  GROUP=   2
 DUMP ORBITAL 14.1 AS ORBITAL   14  occ=    2.0000  eig=   -0.6097  GROUP=   2
 DUMP ORBITAL 15.1 AS ORBITAL   15  occ=    2.0000  eig=   -0.5844  GROUP=   2
 DUMP ORBITAL 16.1 AS ORBITAL   16  occ=    2.0000  eig=   -0.5801  GROUP=   2
 DUMP ORBITAL 17.1 AS ORBITAL   17  occ=    2.0000  eig=   -0.5421  GROUP=   2
 DUMP ORBITAL 18.1 AS ORBITAL   18  occ=    2.0000  eig=   -0.5149  GROUP=   2
 DUMP ORBITAL 19.1 AS ORBITAL   19  occ=    2.0000  eig=   -0.4744  GROUP=   2
 DUMP ORBITAL 20.1 AS ORBITAL   20  occ=    2.0000  eig=   -0.4518  GROUP=   2
 DUMP ORBITAL 21.1 AS ORBITAL   21  occ=    2.0000  eig=   -0.4222  GROUP=   2
 DUMP ORBITAL 22.1 AS ORBITAL   22  occ=    2.0000  eig=   -0.3039  GROUP=   2

 Total charge:      44.000000
 Frequency information read from record  5400.2

 **********************************************************************************************************************************

 HF/6-311G** energy=   -231.885791482425

        OPTG(HF)        HF-SCF  
   -231.88579148   -231.84672664
 **********************************************************************************************************************************
 Molpro calculation terminated
 Variable memory released
