[Molden Format]
[Molpro variables]
_NUMVAR=  927.0000000000000    
_AVOGAD= 0.6022136736000000E+24
_BOLTZ= 0.1380658000000000E-22
_CLIGHT=  29979245800.00000    
_EV= 0.3674932379085202E-01
_ENULL= 0.8854187817000000E-11
_KJOULE= 0.3808798324128737E-03
_KJOULE/MOL= 0.3808798324128737E-03
_CM= 0.4556335267302901E-05
_CM-1= 0.4556335267302901E-05
_DEB2SI= 0.3335641000000000E-29
_AMU2AU=  1822.888390000000    
_KCAL= 0.1593601117815568E-02
_KCAL/MOL= 0.1593601117815568E-02
_KELVIN= 0.3166811411060229E-05
_JOULE= 0.4359748200000000E-17
_HERTZ= 0.1519829846004524E-15
_HZ= 0.1519829846004524E-15
_JPCAL=  4.184000000000000    
_PLANCK= 0.6626075540000000E-33
_TOA= 0.5291772109200000    
_TOANG= 0.5291772109200000    
_TORAD= 0.1745329251994330E-01
_TOCM=  219474.6306700000    
_TODEBYE=  2.541580000000000    
_TOE= 0.4803242000000000E-09
_TOEV=  27.21138505000000    
_TOHERTZ=  6579683920729000.    
_TOHZ=  6579683920729000.    
_TOK=  315775.0400000000    
_TOKCAL=  627.5096000000000    
_TOKELVIN=  315775.0400000000    
_TOKJ=  2625.500000000000    
_TOKJOULE=  2625.500000000000    
_TOKG= 0.1660565586000000E-26
_ANG=  1.889726124565062    
_ANGSTROM=  1.889726124565062    
_RPAREF=  0.000000000000000    
_RPADISS=  0.000000000000000    
_IGNORE_UNDEF=  2.000000000000000    
_STRICTCHECK=  0.000000000000000    
_SEW_ONEEL=  0.000000000000000    
_CPPDONE=FALSE
_DKROLL_DONE=  0.000000000000000    
_FOCKDONE=TRUE
_GRADONE=FALSE
_HESSDONE=TRUE
_INTDONE=TRUE
_SCFDONE=TRUE
_MODUL_BLOCK=FALSE
_MODUL_CUDA=FALSE
_MODUL_SLATER=FALSE
_MODUL_MRCC=TRUE
_MODUL_NBO6=FALSE
_MODUL_NECI=TRUE
_MODUL_AIMS=TRUE
_MRCC_EXEC=/gpfs/runtime/opt/Molpro/2015_serial/molpros_2015_1_linux_x86_64_i8/bin/dmrcc
_FITC_AO_SAVED=FALSE
_FITC_MO_SAVED=FALSE
_SHARED_FS=TRUE
_LSTYP=SEWARD
_INTYP=INTS
_GEOMTYP=ZMAT
_GRADTYP=ALASKA
_DIRECT=FALSE
_DKHO= -1.000000000000000    
_SYNCM=  0.000000000000000    
_BASIS=6-311G**
_ZORIENT=  1.000000000000000    
_NELEC=  44.00000000000000    
!SPIN=  0.000000000000000    
_OPTCONV= 0.4894307622084905E-02
_QSDSTEP=  0.000000000000000    
_QSDIRC=  0.000000000000000    
_PROGRAM=FREQ
_CPUSTEP=  0.000000000000000    
_SYSSTEP=  0.000000000000000    
_WALLSTEP=  0.000000000000000    
!DFSCF=  0.000000000000000    
!SCSGRD=  0.000000000000000    
_BASINP=  610.0000000000000    
_CPUTOT=  2422.870000000000    
_CPUSORT=  1.809999999999945    
_SYSSORT= 0.7199999999999989    
_WALLSORT=  2.540000000968575    
_DFTEXFAC=  1.000000000000000    
_DMX=-0.2038085554739277E-02
_DMY=-0.1639659993009417    
_DMZ= 0.3282721345248429E-02
_DMX_SCF=-0.2038085554739277E-02
_DMY_SCF=-0.1639659993009417    
_DMZ_SCF= 0.3282721345248429E-02
_FREQUENCIES= 0.3357393154417845E-04
_EHOMO=-0.3038703635046203    
_ELUMO= 0.1260322730296833    
_EIGS= -11.22383713995946    
_ENERGY= -231.8857914824247    
_ENERGY_METHOD=HF
_ENERGY_BASIS=6-311G**
_GEOMETRY_METHOD=
_GEOMETRY_BASIS=
_ENUC=  219.9372428847090    
_FREQSTEP=  85.00000000000000    
_GRADENERG= -231.8857741348726    
_GRADEXFAC=  9999.000000000000    
_GRADMETHOD=  1.000000000000000    
_NMRMETHOD=  0.000000000000000    
_NMRMAGNET=  0.000000000000000    
_VIRIAL=-0.7811322149290971E-02
!GRID_FREEZE= -1.000000000000000    
_ITERATIONS=  2.000000000000000    
_LASTNELEC=  44.00000000000000    
_LASTSPIN=  0.000000000000000    
_LASTSYM=  1.000000000000000    
_MPP_PROG=  0.000000000000000    
_RS2PHASE=  0.000000000000000    
_NPROC_MPP=  1.000000000000000    
_NPROC_MPPX=  1.000000000000000    
_NPROC_SMP=  1.000000000000000    
_NUMSTEP=  0.000000000000000    
_OPTCONVMX= 0.2982095218972969E-02
_OPTCONVRMS= 0.1308058733379935E-02
_OPTGRAD= 0.3761622975245433E-03
_OPTGRADMX= 0.1900138613466583E-03
_OPTGRADRMS= 0.1044895270901509E-04
_OPTSTEP=  9.000000000000000    
_ORBITAL=  2100.200000000000    
_PI=  3.141592653589793    
_SEIG_MIN= 0.5288210274265132E-03
_SEWPROP=TRUE
_STATUS=  1.000000000000000    
_SYSTOT=  132.7900000000000    
_VERSION=  2015001.000000000    
_WALLTOT=  2556.120000000000    
_ZPE= 0.1301538352338658    
_DATE=18-Apr-23
_LASTORB=RHF
_MACHINE= 64 bit serial version
_OUTPUT=/gpfs/home/tnorthey/molpro/chd/chd_opt_freq.xml
_PGROUP=C1
_TIME=12:10:23
_LIBMOL=/gpfs/runtime/opt/Molpro/2015_serial/molpros_2015_1_linux_x86_64_i8/lib/
_VIGRDC=  0.000000000000000    
!VIBCNT=  0.000000000000000    
!RGHFCNT=  0.000000000000000    
!SURFREC=  0.000000000000000    
!ROTREC=  0.000000000000000    
!POLYREC=  0.000000000000000    
!DIPREC=  0.000000000000000    
!DIP4DREC=  0.000000000000000    
!DIPROT=  0.000000000000000    
!DIP4DROT=  0.000000000000000    
!PTREC=  0.000000000000000    
!PT4DREC=  0.000000000000000    
!VSCFREC=  0.000000000000000    
!VCIREC=  0.000000000000000    
!PVCIREC=  0.000000000000000    
!VMP2REC=  0.000000000000000    
!VMCSCFREC=  0.000000000000000    
!VMRCIREC=  0.000000000000000    
!VIBSTATEREC=  0.000000000000000    
!VIBSTATECNT=  0.000000000000000    
!VIBINFO=  0.000000000000000    
!GAREC=  0.000000000000000    
!SCFORB=  21002.00000000000    
!NEWMOL=  0.000000000000000    
!NEWSYM=  0.000000000000000    
_SLFILES=slscratch
_NGSSTO=  9.000000000000000    
_SIN=SIN
_COS=COS
_TAN=TAN
_ACOS=ACOS
_ASIN=ASIN
_ATAN=ATAN
_COSH=COSH
_SINH=SINH
_TANH=TANH
_ABS=ABS
_MOD=MOD
_ERF=ERF
_REFC=REFC
_ERFC=ERFC
_HYPOT=HYPOT
_J0=J0
_J1=J1
_JN=JN
_GAMMA=GAMMA
_LGAMMA=LGAMMA
_Y0=Y0
_Y1=Y1
_YN=YN
_EXP=EXP
_LOG=LOG
_LOG10=LOG10
_SQRT=SQRT
_INT=INT
_NINT=NINT
_MAX=MAX
_MIN=MIN
_COSMO=  0.000000000000000    
_COSMOIT=  0.000000000000000    
_COSMOES=  0.000000000000000    
_COSMOEDS=  0.000000000000000    
_COSMOEC=  0.000000000000000    
_COSMOEDCORR=  0.000000000000000    
_FEPSI=  1.000000000000000    
_SL_IsMM=  0.000000000000000    
_SL_NSYM=  1.000000000000000    
_SL_System_BitSw=  0.000000000000000    
_SL_Unique_atoms=  0.000000000000000    
_SL_GRAD=  0.000000000000000    
_SL_MAXUPD_Hess=  5.000000000000000    
_SL_N_PRINT_COD=  5.000000000000000    
_SL_PRINT_CODES=  0.000000000000000    
_SL_BasType=  0.000000000000000    
_SL_Energy_Pred=  0.000000000000000    
_SL_New_Coords=  0.000000000000000    
_SL_Total_Nuclea=  0.000000000000000    
_SL_Highest_Mltp=  0.000000000000000    
_SL_Ref_Geom=  0.000000000000000    
_SL_Symmetry_ope=  1.000000000000000    
_SL_agrad=  0.000000000000000    
_SL_GrdMax=  0.000000000000000    
_SL_GrdNorm=  0.000000000000000    
_SL_GrdRMS=  0.000000000000000    
_SL_Hss_Q=  0.000000000000000    
_SL_Hss_X=  0.000000000000000    
_SL_BMxOld=  0.000000000000000    
_SL_KtB=  0.000000000000000    
_SL_TROld=  0.000000000000000    
_SL_No_of_Intern=  0.000000000000000    
_SL_Hess=  0.000000000000000    
_SL_K=  0.000000000000000    
!LATTICE= -1.000000000000000    
!NEWLATTICE=  0.000000000000000    
!LATGRAD_VAR=FALSE
!SEW_LATTICE=  1.000000000000000    
!LOCAL=  0.000000000000000    
!SAVEDOM= -1.000000000000000    
!RESTDOM= -1.000000000000000    
!SAVEDOM_HF= -1.000000000000000    
!RESTDOM_HF= -1.000000000000000    
!HESSREC=  5300.200000000000    
!FREQREC=  5400.200000000000    
!NMODREC=  5450.200000000000    
!GTASKS=  0.000000000000000    
!HTASKS=  5500.200000000000    
!SAVEDOM_EOM= -1.000000000000000    
!RESTDOM_EOM= -1.000000000000000    
!GRADSTATE= -1.000000000000000    
!THRCHG= 0.1000000000000000    
!DEBUG= -1.000000000000000    
!CFIT_CPHF=  0.000000000000000    
!RDOMAUX_CPHF=  5.000000000000000    
!THRAO_CPHF= 0.9999999999999999E-11
!THRMO_CPHF= 0.9999999999999999E-11
!THROV_CPHF= 0.1000000000000000E-11
!THRSW_CPHF= 0.1000000000000000E-09
!THRPROD_CPHF= 0.9999999999999999E-11
!THRAOPR_CPHF= 0.1000000000000000E-11
!CFIT_SCFGRD=  0.000000000000000    
!RDOMAUX_SCFGRD=  7.000000000000000    
!THRAO_SCFGRD= 0.9999999999999999E-11
!THRMO_SCFGRD= 0.9999999999999999E-11
!THROV_SCFGRD= 0.1000000000000000E-11
!THRSW_SCFGRD= 0.1000000000000000E-09
!THRPROD_SCFGRD= 0.9999999999999999E-11
!THRAOPR_SCFGRD= 0.1000000000000000E-11
!LOCFIT_SCF=  0.000000000000000    
!LOCFIT_MP2= -1.000000000000000    
_RIDOM=  0.000000000000000    
!CC2_METHOD=  0.000000000000000    
_BASIS2006=FALSE
_SVDDEL= -1.000000000000000    
_SVDDELA= -1.000000000000000    
_SVDDELP= -1.000000000000000    
_SVDDELF= -1.000000000000000    
_SVDDELS= -1.000000000000000    
_SVDDEL_ABS= -1.000000000000000    
_SVDDELA_ABS= -1.000000000000000    
_SVDDELP_ABS= -1.000000000000000    
_SVDDELF_ABS= -1.000000000000000    
_SVDDELS_ABS= -1.000000000000000    
_MAXBASIS=  0.000000000000000    
!OPT_CONICAL=  0.000000000000000    
!CLEARSP_JGRID=  0.000000000000000    
_GRDHYBR=  0.000000000000000    
_STATEGRAD=  1.000000000000000    
_4EXT_NDISKS=  1.000000000000000    
!ZMP=  0.000000000000000    
_MAXIT_ZMP=  500.0000000000000    
_MAXDIS_ZMP=  100.0000000000000    
_ACCU_ZMP=  14.00000000000000    
_SHIFTA_ZMP= -100.0000000000000    
!EMBEDFLAG=  1.000000000000000    
!EMBED=FALSE
!EMBED_F12=FALSE
!EMBEDNUC=  0.000000000000000    
_EMBEDENERGY=  0.000000000000000    
_KSPACETIME=  0.000000000000000    
_RSPACETIME=  0.000000000000000    
!EMBED_DFC=FALSE
!NUM_VOIDS=  0.000000000000000    
_IBODY=  0.000000000000000    
_EMBE_TOTAL=  0.000000000000000    
_EMBE_HF=  0.000000000000000    
_EMBE_CORR=  0.000000000000000    
!EMBED_PROJ=FALSE
!EMBED_TRUNC=  0.000000000000000    
!EMB_PROJ_ZMU=  1000000.000000000    
!CORRECTION=  0.000000000000000    
!CORRECTION_HF=  0.000000000000000    
!EMBED_ENERGY=  0.000000000000000    
!EMBED_NAXC=FALSE
!EMBED_AORB=  0.000000000000000    
!EMBED_NACORR=  0.000000000000000    
!EMBED_MP2=FALSE
!EMBED_TRUNC_PERTURBATION=FALSE
!EMBED_FROZEN=  0.000000000000000    
_CHANGE_BASIS=FALSE
_RESTORE_BASIS=FALSE
_FIX_EMBED_GUESS=FALSE
!EDFT=  0.000000000000000    
_IFASTLATGRAD=  0.000000000000000    
_SINDEX=  0.000000000000000    
_AVDOM_OSV=  0.000000000000000    
_AVDOM_PNO=  0.000000000000000    
_AVDOM_PAO=  0.000000000000000    
_AVDOM_LMO=  0.000000000000000    
_CC2OSV_FLAG=  0.000000000000000    
_TMADC2_FLAG=FALSE
_PROPADC2_FLAG=FALSE
_LEN_VirQ=  0.000000000000000    
_GRDCC2LR_FLAG=FALSE
_GRDADC2_FLAG=FALSE
GEOMTYP=XYZ
GX1= 0.7291047537928986    
GY1= -1.239163967158411    
GZ1=-0.1156208907609240    
GX2=  1.406194294614276    
GY2= 0.6968923400113723E-01
GZ2= 0.2170347497048218    
GX3= 0.7338393146045569    
GY3=  1.208529796277519    
GZ3= 0.1715987072696650    
GX4=-0.7008200942283148    
GY4=  1.220048447310794    
GZ4=-0.1727758904685212    
GX5= -1.404219619390641    
GY5= 0.9921620458524527E-01
GZ5=-0.1648091164373334    
GX6=-0.7631216548681120    
GY6= -1.210373334059890    
GZ6= 0.2299797690934213    
GX7=  1.213222791740958    
GY7= -2.060330389393952    
GZ7= 0.4037007726897395    
GX8= 0.8557226872228008    
GY8= -1.429793729484363    
GZ8= -1.182418571983064    
GX9=  2.459279583810558    
GY9= 0.6308660727855608E-01
GZ9= 0.4420127770376527    
GX10=  1.222607902021292    
GY10=  2.146527211616880    
GZ10= 0.3704949953548999    
GX11= -1.163616230034500    
GY11=  2.160553086441276    
GZ11=-0.4170733425773007    
GX12= -2.456923307228551    
GY12= 0.1107714979405336    
GZ12=-0.3913609701964021    
GX13= -1.270079590480460    
GY13= -2.041828911999486    
GZ13=-0.2496644404683812    
GX14=-0.8939408624622788    
GY14= -1.346456900881206    
GZ14=  1.304663559563088    
[Atoms] Angs
C     1    6         0.7291047538       -1.2391639672       -0.1156208908
C     2    6         1.4061942946        0.0696892340        0.2170347497
C     3    6         0.7338393146        1.2085297963        0.1715987073
C     4    6        -0.7008200942        1.2200484473       -0.1727758905
C     5    6        -1.4042196194        0.0992162046       -0.1648091164
C     6    6        -0.7631216549       -1.2103733341        0.2299797691
H     7    1         1.2132227917       -2.0603303894        0.4037007727
H     8    1         0.8557226872       -1.4297937295       -1.1824185720
H     9    1         2.4592795838        0.0630866073        0.4420127770
H    10    1         1.2226079020        2.1465272116        0.3704949954
H    11    1        -1.1636162300        2.1605530864       -0.4170733426
H    12    1        -2.4569233072        0.1107714979       -0.3913609702
H    13    1        -1.2700795905       -2.0418289120       -0.2496644405
H    14    1        -0.8939408625       -1.3464569009        1.3046635596
[GTO]
   1 0
 s    6  1.00
  0.4563240000D+04  0.1966650249D-02
  0.6820240000D+03  0.1523060193D-01
  0.1549730000D+03  0.7612690966D-01
  0.4445530000D+02  0.2608010331D+00
  0.1302900000D+02  0.6164620782D+00
  0.1827730000D+01  0.2210060280D+00
 s    3  1.00
  0.2096420000D+02  0.1146600807D+00
  0.4803310000D+01  0.9199996477D+00
  0.1459330000D+01 -0.3030682134D-02
 s    1  1.00
  0.4834560000D+00  0.1000000000D+01
 s    1  1.00
  0.1455850000D+00  0.1000000000D+01
 p    3  1.00
  0.2096420000D+02  0.4024869267D-01
  0.4803310000D+01  0.2375939567D+00
  0.1459330000D+01  0.8158538515D+00
 p    1  1.00
  0.4834560000D+00  0.1000000000D+01
 p    1  1.00
  0.1455850000D+00  0.1000000000D+01
 d    1  1.00
  0.6260000000D+00  0.1000000000D+01
  
   2 0
 s    6  1.00
  0.4563240000D+04  0.1966650249D-02
  0.6820240000D+03  0.1523060193D-01
  0.1549730000D+03  0.7612690966D-01
  0.4445530000D+02  0.2608010331D+00
  0.1302900000D+02  0.6164620782D+00
  0.1827730000D+01  0.2210060280D+00
 s    3  1.00
  0.2096420000D+02  0.1146600807D+00
  0.4803310000D+01  0.9199996477D+00
  0.1459330000D+01 -0.3030682134D-02
 s    1  1.00
  0.4834560000D+00  0.1000000000D+01
 s    1  1.00
  0.1455850000D+00  0.1000000000D+01
 p    3  1.00
  0.2096420000D+02  0.4024869267D-01
  0.4803310000D+01  0.2375939567D+00
  0.1459330000D+01  0.8158538515D+00
 p    1  1.00
  0.4834560000D+00  0.1000000000D+01
 p    1  1.00
  0.1455850000D+00  0.1000000000D+01
 d    1  1.00
  0.6260000000D+00  0.1000000000D+01
  
   3 0
 s    6  1.00
  0.4563240000D+04  0.1966650249D-02
  0.6820240000D+03  0.1523060193D-01
  0.1549730000D+03  0.7612690966D-01
  0.4445530000D+02  0.2608010331D+00
  0.1302900000D+02  0.6164620782D+00
  0.1827730000D+01  0.2210060280D+00
 s    3  1.00
  0.2096420000D+02  0.1146600807D+00
  0.4803310000D+01  0.9199996477D+00
  0.1459330000D+01 -0.3030682134D-02
 s    1  1.00
  0.4834560000D+00  0.1000000000D+01
 s    1  1.00
  0.1455850000D+00  0.1000000000D+01
 p    3  1.00
  0.2096420000D+02  0.4024869267D-01
  0.4803310000D+01  0.2375939567D+00
  0.1459330000D+01  0.8158538515D+00
 p    1  1.00
  0.4834560000D+00  0.1000000000D+01
 p    1  1.00
  0.1455850000D+00  0.1000000000D+01
 d    1  1.00
  0.6260000000D+00  0.1000000000D+01
  
   4 0
 s    6  1.00
  0.4563240000D+04  0.1966650249D-02
  0.6820240000D+03  0.1523060193D-01
  0.1549730000D+03  0.7612690966D-01
  0.4445530000D+02  0.2608010331D+00
  0.1302900000D+02  0.6164620782D+00
  0.1827730000D+01  0.2210060280D+00
 s    3  1.00
  0.2096420000D+02  0.1146600807D+00
  0.4803310000D+01  0.9199996477D+00
  0.1459330000D+01 -0.3030682134D-02
 s    1  1.00
  0.4834560000D+00  0.1000000000D+01
 s    1  1.00
  0.1455850000D+00  0.1000000000D+01
 p    3  1.00
  0.2096420000D+02  0.4024869267D-01
  0.4803310000D+01  0.2375939567D+00
  0.1459330000D+01  0.8158538515D+00
 p    1  1.00
  0.4834560000D+00  0.1000000000D+01
 p    1  1.00
  0.1455850000D+00  0.1000000000D+01
 d    1  1.00
  0.6260000000D+00  0.1000000000D+01
  
   5 0
 s    6  1.00
  0.4563240000D+04  0.1966650249D-02
  0.6820240000D+03  0.1523060193D-01
  0.1549730000D+03  0.7612690966D-01
  0.4445530000D+02  0.2608010331D+00
  0.1302900000D+02  0.6164620782D+00
  0.1827730000D+01  0.2210060280D+00
 s    3  1.00
  0.2096420000D+02  0.1146600807D+00
  0.4803310000D+01  0.9199996477D+00
  0.1459330000D+01 -0.3030682134D-02
 s    1  1.00
  0.4834560000D+00  0.1000000000D+01
 s    1  1.00
  0.1455850000D+00  0.1000000000D+01
 p    3  1.00
  0.2096420000D+02  0.4024869267D-01
  0.4803310000D+01  0.2375939567D+00
  0.1459330000D+01  0.8158538515D+00
 p    1  1.00
  0.4834560000D+00  0.1000000000D+01
 p    1  1.00
  0.1455850000D+00  0.1000000000D+01
 d    1  1.00
  0.6260000000D+00  0.1000000000D+01
  
   6 0
 s    6  1.00
  0.4563240000D+04  0.1966650249D-02
  0.6820240000D+03  0.1523060193D-01
  0.1549730000D+03  0.7612690966D-01
  0.4445530000D+02  0.2608010331D+00
  0.1302900000D+02  0.6164620782D+00
  0.1827730000D+01  0.2210060280D+00
 s    3  1.00
  0.2096420000D+02  0.1146600807D+00
  0.4803310000D+01  0.9199996477D+00
  0.1459330000D+01 -0.3030682134D-02
 s    1  1.00
  0.4834560000D+00  0.1000000000D+01
 s    1  1.00
  0.1455850000D+00  0.1000000000D+01
 p    3  1.00
  0.2096420000D+02  0.4024869267D-01
  0.4803310000D+01  0.2375939567D+00
  0.1459330000D+01  0.8158538515D+00
 p    1  1.00
  0.4834560000D+00  0.1000000000D+01
 p    1  1.00
  0.1455850000D+00  0.1000000000D+01
 d    1  1.00
  0.6260000000D+00  0.1000000000D+01
  
   7 0
 s    3  1.00
  0.3386500000D+02  0.2549381454D-01
  0.5094790000D+01  0.1903731086D+00
  0.1158790000D+01  0.8521614860D+00
 s    1  1.00
  0.3258400000D+00  0.1000000000D+01
 s    1  1.00
  0.1027410000D+00  0.1000000000D+01
 p    1  1.00
  0.7500000000D+00  0.1000000000D+01
  
   8 0
 s    3  1.00
  0.3386500000D+02  0.2549381454D-01
  0.5094790000D+01  0.1903731086D+00
  0.1158790000D+01  0.8521614860D+00
 s    1  1.00
  0.3258400000D+00  0.1000000000D+01
 s    1  1.00
  0.1027410000D+00  0.1000000000D+01
 p    1  1.00
  0.7500000000D+00  0.1000000000D+01
  
   9 0
 s    3  1.00
  0.3386500000D+02  0.2549381454D-01
  0.5094790000D+01  0.1903731086D+00
  0.1158790000D+01  0.8521614860D+00
 s    1  1.00
  0.3258400000D+00  0.1000000000D+01
 s    1  1.00
  0.1027410000D+00  0.1000000000D+01
 p    1  1.00
  0.7500000000D+00  0.1000000000D+01
  
  10 0
 s    3  1.00
  0.3386500000D+02  0.2549381454D-01
  0.5094790000D+01  0.1903731086D+00
  0.1158790000D+01  0.8521614860D+00
 s    1  1.00
  0.3258400000D+00  0.1000000000D+01
 s    1  1.00
  0.1027410000D+00  0.1000000000D+01
 p    1  1.00
  0.7500000000D+00  0.1000000000D+01
  
  11 0
 s    3  1.00
  0.3386500000D+02  0.2549381454D-01
  0.5094790000D+01  0.1903731086D+00
  0.1158790000D+01  0.8521614860D+00
 s    1  1.00
  0.3258400000D+00  0.1000000000D+01
 s    1  1.00
  0.1027410000D+00  0.1000000000D+01
 p    1  1.00
  0.7500000000D+00  0.1000000000D+01
  
  12 0
 s    3  1.00
  0.3386500000D+02  0.2549381454D-01
  0.5094790000D+01  0.1903731086D+00
  0.1158790000D+01  0.8521614860D+00
 s    1  1.00
  0.3258400000D+00  0.1000000000D+01
 s    1  1.00
  0.1027410000D+00  0.1000000000D+01
 p    1  1.00
  0.7500000000D+00  0.1000000000D+01
  
  13 0
 s    3  1.00
  0.3386500000D+02  0.2549381454D-01
  0.5094790000D+01  0.1903731086D+00
  0.1158790000D+01  0.8521614860D+00
 s    1  1.00
  0.3258400000D+00  0.1000000000D+01
 s    1  1.00
  0.1027410000D+00  0.1000000000D+01
 p    1  1.00
  0.7500000000D+00  0.1000000000D+01
  
  14 0
 s    3  1.00
  0.3386500000D+02  0.2549381454D-01
  0.5094790000D+01  0.1903731086D+00
  0.1158790000D+01  0.8521614860D+00
 s    1  1.00
  0.3258400000D+00  0.1000000000D+01
 s    1  1.00
  0.1027410000D+00  0.1000000000D+01
 p    1  1.00
  0.7500000000D+00  0.1000000000D+01


[MO]
 Sym=      1.1
 Ene=     -11.2238
 Spin= Alpha
 Occup=    2.000000
1 0.39340803838471
2 0.32573746227968
3 0.003362860170936
4 -0.001454497756395
5 -0.000048775066245
6 0.000097207437217
7 0.000039687975552
8 -0.000222670757832
9 -0.000023087936895
10 0.000046532665956
11 -0.000119455536016
12 -0.000299084990736
13 0.000021042937115
14 0.000044683151741
15 -0.000039350415829
16 -0.000005332735912
17 -0.000044874132222
18 -0.000022907207442
19 -0.000019087666647
20 0.075030550138738
21 0.062100532820936
22 0.000713145054509
23 0.000657625425340
24 -0.000015470342670
25 -0.000118587576205
26 -0.000013189671476
27 -0.000157522932522
28 -0.000113877432867
29 -0.000063102108906
30 -0.000295094255615
31 -0.000351130187187
32 -0.000080345410742
33 -0.000011585441694
34 0.000114286054217
35 -0.000102700612524
36 0.000029183866431
37 0.000021442525752
38 0.000034574656103
39 0.014481182201921
40 0.011993061069223
41 0.000100453714328
42 -0.000021723149790
43 0.000010487029022
44 -0.000025786757914
45 -0.000000312219810
46 -0.000012582446280
47 0.000045921404363
48 -0.000002819820033
49 0.000072658298742
50 -0.000002711335243
51 0.000006470920525
52 -0.000004912432421
53 0.000008493939159
54 -0.000003581506738
55 -0.000001415612870
56 -0.000003333549790
57 0.000002290788490
58 0.014209123112960
59 0.011767817126291
60 0.000097645085045
61 -0.000013436629839
62 -0.000010865949324
63 -0.000024887551823
64 0.000001499608311
65 0.000013826664680
66 0.000045058274969
67 0.000000914116861
68 -0.000069721446332
69 -0.000005470076721
70 -0.000005644978688
71 -0.000004446745458
72 0.000008102481368
73 -0.000003655735910
74 0.000001644172388
75 -0.000003376090638
76 -0.000002792512642
77 0.073489963412864
78 0.060825141034816
79 0.000699013379637
80 0.000645203755479
81 0.000012202845199
82 -0.000116408757464
83 0.000018636082475
84 0.000151797896246
85 -0.000114582518765
86 0.000067803624383
87 0.000281331251906
88 -0.000351598020981
89 0.000096094396793
90 -0.000012711093262
91 0.000110603388725
92 -0.000097892295463
93 -0.000024615227917
94 0.000021128370665
95 -0.000046459793553
96 0.38871125515794
97 0.32184769361598
98 0.003325912489403
99 -0.001420019147508
100 0.000052733277963
101 0.000092513130133
102 -0.000044081343239
103 0.000225391073557
104 -0.000031331751402
105 -0.000046206168051
106 0.000116490095404
107 -0.000299618206151
108 -0.000009525818124
109 0.000048683116561
110 -0.000040575743273
111 -0.000008107373288
112 0.000040795328906
113 -0.000025016530787
114 0.000021431097417
115 0.000235365617103
116 0.000174600346781
117 0.000092967280080
118 -0.000014001682006
119 0.000032119691684
120 -0.000000009541429
121 0.000219005106220
122 0.000269247834433
123 0.000190882414810
124 -0.000025065950184
125 0.000032700945127
126 0.000045339987251
127 0.000053397552277
128 0.000024266047557
129 0.000074102630902
130 -0.000015682830891
131 0.000013346420787
132 -0.000003998485091
133 0.000006515267072
134 -0.000004027652700
135 0.000032190848244
136 0.000006209029820
137 -0.000002099773859
138 0.000002149436064
139 0.000006203840336
140 -0.000002857733761
141 0.000032696000055
142 -0.000006086157753
143 -0.000002064788544
144 -0.000001977647576
145 0.000052251959823
146 0.000024551724901
147 0.000073563448652
148 0.000015908629706
149 0.000012915529746
150 0.000003394204362
151 0.000232699673345
152 0.000170908705615
153 0.000090904336903
154 0.000014648018572
155 0.000031272724783
156 -0.000001445591472
157 0.000216318397547
158 0.000265989410331
159 0.000189271125941
160 0.000025889411054
161 0.000029557922904
162 -0.000046692359853
 Sym=      2.1
 Ene=     -11.2233
 Spin= Alpha
 Occup=    2.000000
1 -0.37889701107221
2 -0.31379587241141
3 -0.002980047928618
4 0.002778164528326
5 -0.000105366682894
6 -0.000099326464018
7 -0.000005341568317
8 -0.000286754616756
9 0.000014482498688
10 0.000066785246418
11 -0.000428873568822
12 0.000305408464873
13 0.000177364328840
14 0.000156632710196
15 -0.000081313387035
16 -0.000075319323161
17 0.000008364047344
18 -0.000056138257397
19 0.000014064917020
20 -0.11275551220231
21 -0.093341016586705
22 -0.001063074543559
23 -0.000983683986512
24 0.000009924451346
25 0.000141413225332
26 0.000014541843093
27 0.000196310877341
28 0.000047265672671
29 0.000051979012586
30 0.000290827977935
31 0.000251049130890
32 0.000080799844452
33 0.000013741818877
34 -0.000121521013588
35 0.000107779194711
36 0.000022960874125
37 -0.000041224555752
38 -0.000021229810695
39 -0.022297035402384
40 -0.018461190870869
41 -0.000223935645063
42 0.000610748264482
43 -0.000022538178845
44 0.000039250906050
45 0.000000785334205
46 -0.000000462559033
47 -0.000037546184453
48 -0.000021021311666
49 -0.000218516495923
50 -0.000322349315306
51 -0.000034509243736
52 0.000030371541769
53 -0.000010745463862
54 -0.000019626077907
55 0.000002387847020
56 0.000006408897313
57 -0.000005680722689
58 0.022272399090730
59 0.018440857774681
60 0.000223269101942
61 -0.000612442150319
62 -0.000023642088454
63 -0.000038559669698
64 0.000002632229559
65 0.000000634202512
66 0.000036943343846
67 -0.000022789161106
68 -0.000210111826961
69 0.000326593541343
70 -0.000050155386333
71 -0.000030230200690
72 0.000010284800999
73 0.000019945399691
74 0.000003435466718
75 -0.000006710314023
76 -0.000005031391523
77 0.11272595756897
78 0.093316013554441
79 0.001064466731152
80 0.000993260592181
81 0.000006477253052
82 -0.000141815008549
83 0.000021601759568
84 0.000196291507363
85 -0.000052850330128
86 0.000055141522553
87 0.000289151454248
88 -0.000258097422868
89 0.000094630347059
90 -0.000012919043352
91 0.000118902031305
92 -0.000105982987953
93 0.000028065353002
94 0.000039448926834
95 -0.000035329683408
96 0.38394307549244
97 0.31797407114912
98 0.003022776771948
99 -0.002796181611055
100 -0.000101772332462
101 0.000102830530184
102 -0.000010626967326
103 -0.000283899751360
104 -0.000004366219788
105 0.000066730073687
106 -0.000436714756354
107 -0.000289296503013
108 0.000189509625042
109 -0.000155209827744
110 0.000081205793499
111 0.000074004034245
112 0.000019354506327
113 0.000055673452638
114 0.000012589756535
115 -0.000216880208268
116 -0.000272877496348
117 -0.000160966835402
118 0.000013473939485
119 -0.000030323929788
120 -0.000006926193147
121 -0.000212814340914
122 -0.000296936305466
123 -0.000130363726798
124 0.000005733115173
125 -0.000024491490186
126 -0.000019196150592
127 -0.000086456686961
128 0.000044003467782
129 -0.000030741878537
130 0.000004902189739
131 -0.000013713457854
132 0.000000657591734
133 -0.000024321918347
134 0.000080818163143
135 0.000033628815224
136 -0.000012996166850
137 -0.000001062940000
138 -0.000005795275893
139 0.000024200232349
140 -0.000080476603702
141 -0.000033406892000
142 -0.000012990330131
143 0.000001052032125
144 -0.000005875938704
145 0.000086318281611
146 -0.000043008853909
147 0.000031854684314
148 0.000005487229138
149 0.000013654228210
150 0.000000073861789
151 0.000219957300472
152 0.000274020575630
153 0.000161817963280
154 0.000014455123163
155 0.000029785920620
156 -0.000008467403223
157 0.000215555566390
158 0.000301100755120
159 0.000132857173830
160 0.000006775964814
161 0.000023841615386
162 -0.000020989899720
 Sym=      3.1
 Ene=     -11.2222
 Spin= Alpha
 Occup=    2.000000
1 -0.084960399523277
2 -0.070399064333444
3 -0.000500385540461
4 0.000189032815157
5 0.000052594987906
6 0.000051336881101
7 0.000019982654766
8 0.000141349745507
9 0.000287153569715
10 0.000013196211695
11 -0.000300733414233
12 0.000276783028667
13 -0.000414002314951
14 -0.000057773330543
15 0.000064056515877
16 -0.000006283185334
17 0.000122415235376
18 -0.000008451194242
19 0.000082916731232
20 0.40047533675989
21 0.33168930768565
22 0.003142636704275
23 -0.000687323494084
24 0.000093671664611
25 -0.000172835181000
26 0.000014439374788
27 -0.000193892563061
28 0.000552523428189
29 0.000010141020756
30 0.000594152803831
31 -0.000270528360685
32 0.000192908842870
33 0.000076885443688
34 0.000181573185928
35 -0.000258458629616
36 -0.000302859988359
37 0.000055644463805
38 -0.000028684013996
39 0.13225051649416
40 0.10949899371306
41 0.001165317002137
42 0.000392749532954
43 0.000005505028962
44 -0.000097125688515
45 -0.000006605883634
46 -0.000013247523343
47 -0.000001432001364
48 0.000002678094604
49 0.000036943820861
50 -0.000183499083553
51 -0.000051835329478
52 -0.000012401797770
53 0.000020481582436
54 -0.000008079784666
55 -0.000018004800660
56 -0.000010953269403
57 0.000001792188457
58 0.11587089672326
59 0.095934357255526
60 0.001032555636439
61 0.000427083814666
62 0.000004322535281
63 -0.000076131119877
64 0.000011667716147
65 0.000023019874070
66 -0.000017777734775
67 0.000001091277736
68 -0.000078733319321
69 -0.000231556775936
70 0.000054954991050
71 -0.000003254531885
72 0.000013400781980
73 -0.000010146250095
74 0.000010527049939
75 -0.000009031679933
76 -0.000004642616106
77 0.33846363524198
78 0.28032682562825
79 0.002672925354692
80 -0.000705933738544
81 -0.000081577192783
82 -0.000143771311152
83 -0.000003941452460
84 0.000177238135207
85 0.000456134302561
86 -0.000032837632850
87 -0.000585934709108
88 -0.000288812194990
89 -0.000172436338076
90 0.000076068920826
91 0.000142745363647
92 -0.000218814284474
93 0.000259259000629
94 0.000034611767654
95 0.000005619431717
96 -0.064627311408344
97 -0.053551171967545
98 -0.000387900112654
99 0.000136753204433
100 -0.000051882228766
101 0.000044290749098
102 -0.000017237502301
103 -0.000127124368271
104 0.000247016490510
105 -0.000015860120260
106 0.000302985092739
107 0.000285536250163
108 0.000414793314115
109 -0.000058951268289
110 0.000050639705175
111 0.000008311563114
112 -0.000102499158044
113 -0.000006770417926
114 -0.000077798685829
115 -0.000061074342941
116 0.000280790286110
117 0.000040325980472
118 -0.000013570311027
119 0.000061191203789
120 -0.000034179360703
121 -0.000042807957458
122 -0.000218117815685
123 0.000001663121122
124 0.000031325429225
125 -0.000022184436306
126 -0.000013834405849
127 0.000319487138054
128 -0.000235176931549
129 0.000004705008120
130 0.000010545045928
131 0.000030667990916
132 -0.000002101622495
133 0.000107565310942
134 -0.000098117815783
135 0.000122031651578
136 0.000017952245152
137 0.000014097296395
138 0.000007469655771
139 0.000093603652404
140 -0.000072690609794
141 0.000113929433310
142 -0.000008676806169
143 0.000012991395081
144 -0.000005369915792
145 0.000271767792526
146 -0.000212304718862
147 -0.000015244991938
148 -0.000009001092679
149 0.000028769824649
150 0.000001041656183
151 -0.000049437880339
152 0.000280923111218
153 0.000053465913067
154 0.000014851766257
155 0.000059659822423
156 0.000027575236849
157 -0.000026886697843
158 -0.000228030007364
159 0.000005055816682
160 -0.000031762703220
161 -0.000021679700509
162 0.000018074885169
 Sym=      4.1
 Ene=     -11.2221
 Spin= Alpha
 Occup=    2.000000
1 -0.10806044324682
2 -0.089540491513578
3 -0.000582052763592